TITLE="mean" 
Variables="X","Y","Z","VX","VY","VZ"
ZONE T="0", I=289, J=214, SOLUTIONTIME=0
-47.5266 -81.232 35.0 5234.86322322 -10507.98999 -9.70557066066
-47.1932 -81.232 35.0 5228.37631632 -10470.1865766 10.4828189848
-46.8598 -81.232 35.0 5233.72112112 -10506.013984 -9.43766158859
-46.5263 -81.232 35.0 5223.91187187 -10502.1219219 -8.00187158757
-46.1929 -81.232 35.0 5097.46791792 -10203.1078779 166.766051852
-45.8595 -81.232 35.0 4817.23266266 -9531.00304304 563.454192856
-45.5261 -81.232 35.0 4384.07271271 -8487.32884885 1173.36420621
-45.1927 -81.232 35.0 3981.00855856 -7553.65499499 1733.49544925
-44.8593 -81.232 35.0 3810.11469469 -7149.15094094 1973.81405305
-44.5259 -81.232 35.0 3747.80051051 -6997.19475475 2062.33497497
-44.1924 -81.232 35.0 3746.86098098 -6989.75635636 2065.28118118
-43.859 -81.232 35.0 3747.96568569 -6988.49457457 2064.51423423
-43.5256 -81.232 35.0 3747.14843844 -6982.93375375 2067.01744745
-43.1922 -81.232 35.0 3748.99302302 -6983.61827828 2065.2702002
-42.8588 -81.232 35.0 3750.06721722 -6984.99926927 2063.11878879
-42.5254 -81.232 35.0 3749.98296296 -6985.02188188 2061.77722723
-42.192 -81.232 35.0 3752.17129129 -6991.37690691 2057.25481481
-41.8586 -81.232 35.0 3751.32411411 -6990.0776977 2057.23676677
-41.5251 -81.232 35.0 3774.92943944 -7043.55127127 2024.1896026
-41.1917 -81.232 35.0 3785.22702703 -7068.9370971 2008.29032933
-40.8583 -81.232 35.0 3796.50713714 -7095.19229229 1991.32575375
-40.5249 -81.232 35.0 3811.76095095 -7130.13421421 1968.86475776
-40.1915 -81.232 35.0 3809.7238038 -7126.91166166 1969.70835235
-39.8581 -81.232 35.0 3806.52495495 -7121.30511512 1971.85593694
-39.5247 -81.232 35.0 3806.99861862 -7124.72541542 1969.42102202
-39.1912 -81.232 35.0 3807.19152152 -7125.89292292 1967.80556056
-38.8578 -81.232 35.0 3806.15814815 -7123.34718719 1968.26607708
-38.5244 -81.232 35.0 3804.92332332 -7121.72466466 1967.82382482
-38.191 -81.232 35.0 3808.12229229 -7130.72855856 1961.87497397
-37.8576 -81.232 35.0 3805.36045045 -7125.2361962 1964.19125225
-37.5242 -81.232 35.0 3812.77422422 -7143.36638639 1952.70435335
-37.1908 -81.232 35.0 3815.38633634 -7152.05574575 1946.77477578
-36.8573 -81.232 35.0 3810.72778779 -7144.18990991 1950.56781782
-36.5239 -81.232 35.0 3803.15412412 -7128.83520521 1958.51948448
-36.1905 -81.232 35.0 3795.21886887 -7112.56682683 1967.2302022
-35.8571 -81.232 35.0 3790.18377377 -7101.0695996 1972.59848048
-35.5237 -81.232 35.0 3796.05323323 -7113.67852853 1964.64310711
-35.1903 -81.232 35.0 3796.86198198 -7117.40012012 1961.68845846
-34.8569 -81.232 35.0 3790.13228228 -7104.54443443 1968.68828629
-34.5234 -81.232 35.0 3787.27606607 -7100.82702703 1969.77884985
-34.19 -81.232 35.0 3771.18382382 -7066.8862963 1989.21310511
-33.8566 -81.232 35.0 3773.35293293 -7072.06079079 1985.13644745
-33.5232 -81.232 35.0 3770.45303303 -7065.74321321 1988.03561161
-33.1898 -81.232 35.0 3773.00458458 -7071.95786787 1983.49988589
-32.8564 -81.232 35.0 3773.43914915 -7073.77072072 1981.27744444
-32.523 -81.232 35.0 3763.63958959 -7053.96993994 1992.07632032
-32.1896 -81.232 35.0 3762.24617618 -7053.56721722 1991.37558258
-31.8561 -81.232 35.0 3762.89907908 -7056.63335335 1988.06732733
-31.5227 -81.232 35.0 3756.61815816 -7043.44845846 1995.20336036
-31.1893 -81.232 35.0 3760.75088088 -7052.69997998 1988.67996396
-30.8559 -81.232 35.0 3753.91822823 -7037.35152152 1997.22894194
-30.5225 -81.232 35.0 3756.77273273 -7045.40009009 1991.36808408
-30.1891 -81.232 35.0 3760.01082082 -7053.3554955 1985.63977578
-29.8557 -81.232 35.0 3766.1723023 -7068.93363363 1975.43336036
-29.5222 -81.232 35.0 3770.09167167 -7078.03603604 1969.11822823
-29.1888 -81.232 35.0 3771.69255255 -7083.8502002 1965.01080981
-28.8554 -81.232 35.0 3760.25006006 -7058.73854855 1978.87513614
-28.522 -81.232 35.0 3760.21501502 -7060.85525526 1976.2982022
-28.1886 -81.232 35.0 3746.56725726 -7032.60275275 1991.19577077
-27.8552 -81.232 35.0 3744.15467467 -7030.63646647 1991.49817117
-27.5218 -81.232 35.0 3736.58203203 -7013.93372372 2003.70634234
-27.1883 -81.232 35.0 3736.56296296 -7015.16585586 1996.58791191
-26.8549 -81.232 35.0 3729.0366967 -7000.58356356 1977.83641241
-26.5215 -81.232 35.0 3724.91668669 -6994.69983984 1954.49007217
-26.1881 -81.232 35.0 3730.47746747 -7006.99700701 1941.75154254
-25.8547 -81.232 35.0 3727.97298298 -7002.76562563 1943.3367943
-25.5213 -81.232 35.0 3719.2397998 -6985.05445445 1945.6667031
-25.1879 -81.232 35.0 3713.98299299 -6976.86418418 1939.50811512
-24.8544 -81.232 35.0 3714.37923924 -6980.21357357 1934.45432763
-24.521 -81.232 35.0 3717.11857858 -6988.13288288 1934.2842008
-24.1876 -81.232 35.0 3726.1931031 -7007.97724725 1939.30485798
-23.8542 -81.232 35.0 3732.47263263 -7021.64171171 1948.17010561
-23.5208 -81.232 35.0 3720.17263263 -6994.18197197 1965.45377858
-23.1874 -81.232 35.0 3700.36164164 -6954.70035035 1945.72344554
-22.854 -81.232 35.0 3645.84023023 -6844.02185185 1897.47545706
-22.5206 -81.232 35.0 3606.3058959 -6767.94402402 1842.33823924
-22.1871 -81.232 35.0 3606.10597598 -6770.73594595 1837.56642573
-21.8537 -81.232 35.0 3611.66386386 -6783.02575576 1835.20366238
-21.5203 -81.232 35.0 3598.40582583 -6757.60069069 1808.76476216
-21.1869 -81.232 35.0 3576.89024024 -6717.21057057 1770.01250625
-20.8535 -81.232 35.0 3565.56865866 -6696.11214214 1768.80966993
-20.5201 -81.232 35.0 3572.86425425 -6708.52913914 1790.21828899
-20.1867 -81.232 35.0 3604.32671672 -6767.52917918 1864.24769233
-19.8532 -81.232 35.0 3644.79306306 -6849.46682683 1918.89732989
-19.5198 -81.232 35.0 3651.51496496 -6862.86115115 1930.43049003
-19.1864 -81.232 35.0 3624.22347347 -6808.36590591 1898.01382026
-18.853 -81.232 35.0 3564.54105105 -6686.85957958 1831.45359523
-18.5196 -81.232 35.0 3529.46697698 -6619.41114114 1781.99829508
-18.1862 -81.232 35.0 3551.93670671 -6667.04870871 1821.18001342
-17.8528 -81.232 35.0 3581.89660661 -6728.68217217 1858.48634979
-17.5193 -81.232 35.0 3543.15072072 -6650.46072072 1833.73484355
-17.1859 -81.232 35.0 3491.50122122 -6546.67412412 1772.09637473
-16.8525 -81.232 35.0 3466.98765766 -6497.73033033 1746.03948244
-16.5191 -81.232 35.0 3485.98193193 -6537.56907908 1749.9339068
-16.1857 -81.232 35.0 3541.9146046 -6649.16389389 1826.03363645
-15.8523 -81.232 35.0 3603.81672673 -6776.174004 1900.1871822
-15.5189 -81.232 35.0 3635.18277277 -6839.52341341 1936.85534
-15.1854 -81.232 35.0 3621.52641642 -6812.55935936 1919.68957903
-14.852 -81.232 35.0 3561.18043043 -6691.26733734 1836.53354557
-14.5186 -81.232 35.0 3522.87477477 -6616.91603604 1770.96931661
-14.1852 -81.232 35.0 3547.48831832 -6666.74614615 1809.68530936
-13.8518 -81.232 35.0 3578.50682683 -6730.12853854 1861.18935391
-13.5184 -81.232 35.0 3545.76543544 -6662.23239239 1837.88350434
-13.185 -81.232 35.0 3501.9235035 -6577.68818819 1765.96835808
-12.8516 -81.232 35.0 3476.54818819 -6526.20141141 1744.80697189
-12.5181 -81.232 35.0 3483.30715716 -6539.61882883 1741.13477679
-12.1847 -81.232 35.0 3516.45810811 -6606.50508509 1791.08942705
-11.8513 -81.232 35.0 3558.0126026 -6692.92936937 1850.57820642
-11.5179 -81.232 35.0 3603.92404404 -6786.39001001 1909.66105503
-11.1845 -81.232 35.0 3624.3060961 -6830.23013013 1908.12112007
-10.8511 -81.232 35.0 3566.68485485 -6713.05428428 1840.19432045
-10.5177 -81.232 35.0 3529.66258258 -6641.81073073 1786.79900861
-10.1842 -81.232 35.0 3552.60121121 -6687.19617618 1830.33349275
-9.85083 -81.232 35.0 3593.99339339 -6774.3911011 1887.50956795
-9.51741 -81.232 35.0 3567.71124124 -6719.59284284 1887.00528885
-9.184 -81.232 35.0 3536.62815816 -6659.19238238 1827.68568987
-8.85059 -81.232 35.0 3520.29426426 -6627.05806807 1795.46077765
-8.51717 -81.232 35.0 3519.79027027 -6628.30029029 1776.95165767
-8.18376 -81.232 35.0 3517.38309309 -6623.3503003 1796.35194665
-7.85034 -81.232 35.0 3534.073003 -6657.45746747 1817.44172825
-7.51693 -81.232 35.0 3562.11338338 -6710.83656657 1891.78684064
-7.18352 -81.232 35.0 3575.65078078 -6739.58665666 1915.74808855
-6.8501 -81.232 35.0 3534.17986987 -6654.76214214 1885.32075866
-6.51669 -81.232 35.0 3502.16339339 -6592.28241241 1843.00763954
-6.18328 -81.232 35.0 3506.12493493 -6600.36434434 1850.78753052
-5.84986 -81.232 35.0 3529.58019019 -6650.12981982 1869.33773173
-5.51645 -81.232 35.0 3514.14002002 -6618.81643644 1853.69057134
-5.18303 -81.232 35.0 3496.82988989 -6585.88931932 1808.31705422
-4.84962 -81.232 35.0 3465.17590591 -6520.8075976 1781.83123048
-4.51621 -81.232 35.0 3454.03578579 -6499.26915916 1758.89710827
-4.18279 -81.232 35.0 3444.17598599 -6480.09092092 1755.07368801
-3.84938 -81.232 35.0 3453.2854955 -6499.81412412 1776.79228354
-3.51597 -81.232 35.0 3491.21461461 -6574.55970971 1838.17937749
-3.18255 -81.232 35.0 3529.01244244 -6651.63119119 1878.61237645
-2.84914 -81.232 35.0 3507.43930931 -6607.67986987 1857.00215536
-2.51572 -81.232 35.0 3491.92775776 -6576.16034034 1832.87823285
-2.18231 -81.232 35.0 3482.45443443 -6556.02477477 1826.36644564
-1.8489 -81.232 35.0 3480.26002002 -6554.07292292 1826.43315719
-1.51548 -81.232 35.0 3466.78527528 -6527.81205205 1828.06370365
-1.18207 -81.232 35.0 3455.62813814 -6505.89792793 1806.59528319
-0.848655 -81.232 35.0 3436.51578579 -6465.12612613 1789.65300147
-0.515241 -81.232 35.0 3415.58008008 -6423.13942943 1770.24265039
-0.181828 -81.232 35.0 3407.83848849 -6409.29058058 1768.3478871
0.151586 -81.232 35.0 3429.15881882 -6454.78247247 1778.86954095
0.485 -81.232 35.0 3455.87958959 -6509.05477477 1825.26046633
0.818414 -81.232 35.0 3476.65840841 -6552.32132132 1843.31343378
1.15183 -81.232 35.0 3466.02277277 -6529.79161161 1824.40285034
1.48524 -81.232 35.0 3456.22577578 -6509.94768769 1805.92154998
1.81866 -81.232 35.0 3426.64502503 -6447.14403403 1773.54849877
2.15207 -81.232 35.0 3406.91372372 -6409.66344344 1758.39411558
2.48548 -81.232 35.0 3406.6877978 -6409.78783784 1768.31649644
2.8189 -81.232 35.0 3414.62233233 -6427.95861862 1760.52093925
3.15231 -81.232 35.0 3408.16697698 -6414.15885886 1741.5220683
3.48572 -81.232 35.0 3401.9138038 -6407.92259259 1702.17187306
3.81914 -81.232 35.0 3387.59837838 -6377.65958959 1688.14437841
4.15255 -81.232 35.0 3406.97046046 -6416.08307307 1720.14517423
4.48597 -81.232 35.0 3414.41528529 -6427.04538539 1752.73772808
4.81938 -81.232 35.0 3416.24187187 -6431.34648649 1765.87739733
5.15279 -81.232 35.0 3413.89323323 -6428.20241241 1777.01116647
5.48621 -81.232 35.0 3407.14078078 -6415.80418418 1761.50159879
5.81962 -81.232 35.0 3348.3051952 -6288.35797798 1706.62984725
6.15303 -81.232 35.0 3342.51711712 -6286.89498498 1681.69706565
6.48645 -81.232 35.0 3335.47554555 -6270.44900901 1682.51780246
6.81986 -81.232 35.0 3346.73726727 -6294.81097097 1700.76391454
7.15328 -81.232 35.0 3324.11654655 -6246.94105105 1691.96666831
7.48669 -81.232 35.0 3294.79588589 -6188.9818018 1642.8510571
7.8201 -81.232 35.0 3243.70714715 -6082.70024024 1588.69083592
8.15352 -81.232 35.0 3278.27547548 -6151.83223223 1626.52113518
8.48693 -81.232 35.0 3274.71623624 -6140.5014014 1623.21906145
8.82034 -81.232 35.0 3292.49194194 -6176.14862863 1637.79093311
9.15376 -81.232 35.0 3299.36703704 -6189.91007007 1645.7375808
9.48717 -81.232 35.0 3281.29946947 -6150.3894995 1613.33690251
9.82059 -81.232 35.0 3177.08863864 -5925.52074074 1480.26284995
10.154 -81.232 35.0 3108.7664965 -5783.52533534 1375.84853634
10.4874 -81.232 35.0 2994.56841842 -5525.58883884 1224.87997518
10.8208 -81.232 35.0 2979.59265265 -5499.62702703 1211.45532089
11.1542 -81.232 35.0 2905.36111111 -5350.38143143 1126.25486078
11.4877 -81.232 35.0 2770.16893894 -5097.87023023 953.287150688
11.8211 -81.232 35.0 2583.14638639 -4734.30469469 712.056821733
12.1545 -81.232 35.0 2369.33763764 -4340.95500501 424.803679317
12.4879 -81.232 35.0 2170.99304304 -3949.32302302 169.911214643
12.8213 -81.232 35.0 2136.12134134 -3889.29777778 96.4526024801
13.1547 -81.232 35.0 2047.81244244 -3710.64615616 -6.02190042693
13.4881 -81.232 35.0 2048.71412412 -3717.72256256 -21.4474867497
13.8216 -81.232 35.0 2015.49652653 -3648.62641642 -46.1865455232
14.155 -81.232 35.0 2006.79345345 -3628.10813814 -40.7604311586
14.4884 -81.232 35.0 1999.05454454 -3610.54977978 -29.1762405757
14.8218 -81.232 35.0 2007.07700701 -3628.33102102 -39.2618123786
15.1552 -81.232 35.0 2002.58765766 -3618.17958959 -34.8362402812
15.4886 -81.232 35.0 2002.37385385 -3618.04194194 -35.472055681
15.822 -81.232 35.0 2003.45762763 -3620.36906907 -35.9919335237
16.1554 -81.232 35.0 1997.97339339 -3608.12077077 -31.1653325418
16.4889 -81.232 35.0 1996.56987988 -3604.67279279 -24.2836586923
16.8223 -81.232 35.0 2001.66131131 -3615.82592593 -31.2923752159
17.1557 -81.232 35.0 1999.55707708 -3610.24973974 -25.3633187939
17.4891 -81.232 35.0 2002.9722022 -3618.35798799 -29.9864264447
17.8225 -81.232 35.0 2003.45726727 -3620.41432432 -29.9287312031
18.1559 -81.232 35.0 2006.32728729 -3626.77771772 -35.7530893442
18.4893 -81.232 35.0 2004.33818819 -3622.70673674 -33.9436344012
18.8228 -81.232 35.0 2012.06457457 -3638.9175976 -39.675199907
19.1562 -81.232 35.0 2007.71813814 -3628.93376376 -35.3079653018
19.4896 -81.232 35.0 2005.69698699 -3624.02827828 -35.5787368737
19.823 -81.232 35.0 1996.55923924 -3603.45173173 -25.852764963
20.1564 -81.232 35.0 1992.27119119 -3595.10021021 -23.8242566476
20.4898 -81.232 35.0 1992.68183183 -3595.50605606 -19.2750468351
20.8232 -81.232 35.0 1994.15366366 -3599.11858859 -19.8782127134
21.1567 -81.232 35.0 1992.49268268 -3595.45202202 -16.3628301579
21.4901 -81.232 35.0 1996.17776777 -3602.93246246 -13.6830577586
21.8235 -81.232 35.0 1988.9425025 -3587.67165165 -11.9041569055
22.1569 -81.232 35.0 1996.64094094 -3604.52192192 -14.5866332853
22.4903 -81.232 35.0 1998.71061061 -3607.86886887 -11.4703979025
22.8237 -81.232 35.0 2007.09283283 -3625.59560561 -16.7404868062
23.1571 -81.232 35.0 2000.22881882 -3609.39355355 -11.7304751817
23.4906 -81.232 35.0 2003.88348348 -3617.3873974 -11.9311523233
23.824 -81.232 35.0 1996.07384384 -3599.57402402 -6.69509878248
24.1574 -81.232 35.0 2010.62651652 -3631.22700701 -5.84469290731
24.4908 -81.232 35.0 2006.75196196 -3623.23479479 -4.45749236456
24.8242 -81.232 35.0 2016.18516517 -3644.05668669 -5.32267291279
25.1576 -81.232 35.0 2012.64991992 -3635.86452452 5.73669247237
25.491 -81.232 35.0 2027.86354354 -3666.00376376 14.6492734723
25.8244 -81.232 35.0 2025.49827828 -3658.26511512 23.5193791078
26.1579 -81.232 35.0 2034.32408408 -3676.47014014 27.7620119803
26.4913 -81.232 35.0 2035.44167167 -3678.82623624 33.5819499871
26.8247 -81.232 35.0 2042.16503504 -3693.37321321 33.872700558
27.1581 -81.232 35.0 2031.56293293 -3672.47606607 39.0317890262
27.4915 -81.232 35.0 2039.74758759 -3688.79938939 46.1730097911
27.8249 -81.232 35.0 2028.1765966 -3665.21643644 27.0435786618
28.1583 -81.232 35.0 2033.30801802 -3675.44825826 26.6954963882
28.4918 -81.232 35.0 2022.02216216 -3652.97405405 22.9796583054
28.8252 -81.232 35.0 2035.38808809 -3681.60481481 35.2377856086
29.1586 -81.232 35.0 2043.06895896 -3697.19234234 48.8538929454
29.492 -81.232 35.0 2055.41670671 -3722.97295295 69.5456392163
29.8254 -81.232 35.0 2073.23237237 -3758.00173173 86.378151857
30.1588 -81.232 35.0 2087.87580581 -3786.66141141 103.250416913
30.4922 -81.232 35.0 2104.34196196 -3818.87467467 135.389217787
30.8257 -81.232 35.0 2115.8906006 -3842.70952953 147.794345964
31.1591 -81.232 35.0 2118.86485485 -3845.05782783 159.527552994
31.4925 -81.232 35.0 2123.01935936 -3856.27860861 153.25148371
31.8259 -81.232 35.0 2105.64354354 -3819.59614615 134.362561918
32.1593 -81.232 35.0 2086.83612613 -3783.30668669 98.2953728144
32.4927 -81.232 35.0 2069.7995996 -3750.04384384 90.444153462
32.8261 -81.232 35.0 2070.34960961 -3750.57396396 85.5534241155
33.1596 -81.232 35.0 2095.31972973 -3798.90456456 126.103441604
33.493 -81.232 35.0 2095.16437437 -3798.27094094 135.641420158
33.8264 -81.232 35.0 2128.95131131 -3863.7413013 194.539294202
34.1598 -81.232 35.0 2134.86353353 -3878.19301301 202.353668904
34.4932 -81.232 35.0 2181.6728028 -3973.65986987 265.574884392
34.8266 -81.232 35.0 2175.90705706 -3961.8968969 256.320647761
35.16 -81.232 35.0 2198.95762763 -4005.14745746 283.628794438
35.4934 -81.232 35.0 2209.2883984 -4027.21824825 295.33516447
35.8269 -81.232 35.0 2186.63394394 -3981.92553554 269.959466977
36.1603 -81.232 35.0 2170.58880881 -3948.78082082 245.704818673
36.4937 -81.232 35.0 2153.35516517 -3915.05167167 230.727872387
36.8271 -81.232 35.0 2139.70941942 -3887.01194194 200.908961078
37.1605 -81.232 35.0 2161.19141141 -3931.17967968 231.178700753
37.4939 -81.232 35.0 2171.52711712 -3950.22155155 243.892234184
37.8273 -81.232 35.0 2201.04251251 -4006.40855856 294.250456098
38.1608 -81.232 35.0 2218.344004 -4044.76607608 311.696471936
38.4942 -81.232 35.0 2246.91510511 -4101.38926927 353.714643262
38.8276 -81.232 35.0 2249.31276276 -4105.30419419 353.508773779
39.161 -81.232 35.0 2245.07538539 -4095.55526527 360.680303632
39.4944 -81.232 35.0 2243.73343343 -4097.32445445 348.287782124
39.8278 -81.232 35.0 2221.65527528 -4055.54409409 317.220867238
40.1612 -81.232 35.0 2208.57238238 -4029.15288288 290.6425854
40.4947 -81.232 35.0 2182.52114114 -3975.76367367 259.191669462
40.8281 -81.232 35.0 2167.57767768 -3944.87013013 237.599945769
41.1615 -81.232 35.0 2155.07918919 -3918.22655656 229.69127048
41.4949 -81.232 35.0 2161.03666667 -3929.34745746 236.783675731
41.8283 -81.232 35.0 2174.15614615 -3956.66911912 263.935901346
42.1617 -81.232 35.0 2198.47394394 -4005.69993994 284.539092717
42.4951 -81.232 35.0 2196.83001001 -4003.53900901 287.550127374
42.8286 -81.232 35.0 2209.39269269 -4030.25321321 303.165917855
43.162 -81.232 35.0 2187.44625626 -3987.14540541 280.86686888
43.4954 -81.232 35.0 2165.41056056 -3941.96786787 243.040464584
43.8288 -81.232 35.0 2128.4958959 -3864.49075075 182.7770108
44.1622 -81.232 35.0 2086.29701702 -3778.27082082 118.142422205
44.4956 -81.232 35.0 2049.30004004 -3706.36341341 66.3270945289
44.829 -81.232 35.0 2020.66533534 -3649.80354354 19.8374754637
45.1624 -81.232 35.0 1997.30041041 -3603.46022022 -8.42814158478
45.4959 -81.232 35.0 1988.34641642 -3583.73154154 -28.2527907618
45.8293 -81.232 35.0 1983.93631632 -3574.5409009 -31.7577106415
46.1627 -81.232 35.0 1985.72794795 -3578.32271271 -37.5476905313
46.4961 -81.232 35.0 1985.6023023 -3578.28708709 -37.7426241966
46.8295 -81.232 35.0 1984.85231231 -3576.74133133 -37.2078061272
47.1629 -81.232 35.0 1978.09528529 -3562.13577578 -29.8491717047
47.4963 -81.232 35.0 1973.32585586 -3551.66108108 -24.5543020224
47.8298 -81.232 35.0 1969.45237237 -3543.14045045 -20.3481397664
48.1632 -81.232 35.0 1968.62822823 -3541.77770771 -19.7279479295
48.4966 -81.232 35.0 1968.14776777 -3540.7467968 -19.0074505231
-47.5266 -80.5339 35.0 5213.98954955 -10448.2090691 0.816733887187
-47.1932 -80.5339 35.0 5227.26575576 -10459.5788889 7.26846943644
-46.8598 -80.5339 35.0 5211.97870871 -10446.3552252 -0.737548595896
-46.5263 -80.5339 35.0 5204.08593594 -10451.5665666 -22.9786412166
-46.1929 -80.5339 35.0 5189.42181181 -10409.3759259 -3.02361732432
-45.8595 -80.5339 35.0 5085.37118118 -10132.3736537 166.464511488
-45.5261 -80.5339 35.0 4925.303003 -9714.51926927 410.156848609
-45.1927 -80.5339 35.0 4742.84498498 -9260.10912913 674.522930811
-44.8593 -80.5339 35.0 4643.5173974 -9012.29412412 804.243494494
-44.5259 -80.5339 35.0 4609.25885886 -8925.64369369 844.55736036
-44.1924 -80.5339 35.0 4590.78422422 -8883.29855856 862.441051051
-43.859 -80.5339 35.0 4578.5287988 -8855.66520521 882.235085085
-43.5256 -80.5339 35.0 4567.07692693 -8827.97434434 906.187796797
-43.1922 -80.5339 35.0 4560.07155155 -8813.85838839 922.102015015
-42.8588 -80.5339 35.0 4547.33540541 -8796.8732032 923.530163163
-42.5254 -80.5339 35.0 4515.32107107 -8740.52563564 952.165547548
-42.192 -80.5339 35.0 4446.32771772 -8598.85695696 1038.91856757
-41.8586 -80.5339 35.0 4396.9263964 -8484.72947948 1119.05339439
-41.5251 -80.5339 35.0 4393.47173173 -8463.6796997 1134.7440961
-41.1917 -80.5339 35.0 4401.52189189 -8465.53382382 1134.9512983
-40.8583 -80.5339 35.0 4392.44983984 -8443.8060961 1136.81615315
-40.5249 -80.5339 35.0 4367.30867868 -8391.81018018 1159.7758028
-40.1915 -80.5339 35.0 4354.12324324 -8366.26024024 1163.36841542
-39.8581 -80.5339 35.0 4342.67265265 -8341.52014014 1178.26305806
-39.5247 -80.5339 35.0 4344.55036036 -8346.39341341 1182.06610511
-39.1912 -80.5339 35.0 4341.71305305 -8340.00938939 1193.16697798
-38.8578 -80.5339 35.0 4338.72454454 -8333.72828829 1185.19986887
-38.5244 -80.5339 35.0 4329.9706006 -8315.24326326 1187.77736637
-38.191 -80.5339 35.0 4332.38084084 -8320.39592593 1184.42715616
-37.8576 -80.5339 35.0 4333.27332332 -8321.45685686 1194.62853053
-37.5242 -80.5339 35.0 4342.14 -8344.00156156 1184.97590891
-37.1908 -80.5339 35.0 4342.10176176 -8346.58517518 1187.81831832
-36.8573 -80.5339 35.0 4348.14892893 -8363.24987988 1173.90874675
-36.5239 -80.5339 35.0 4341.94928929 -8350.3284985 1178.03511311
-36.1905 -80.5339 35.0 4339.70902903 -8346.28017017 1169.46664565
-35.8571 -80.5339 35.0 4331.39740741 -8327.43723724 1179.25357958
-35.5237 -80.5339 35.0 4342.72055055 -8352.02062062 1171.18953754
-35.1903 -80.5339 35.0 4347.35694695 -8362.84253253 1176.69382883
-34.8569 -80.5339 35.0 4344.38148148 -8360.37768769 1174.3513013
-34.5234 -80.5339 35.0 4334.24203203 -8339.88876877 1186.58474875
-34.19 -80.5339 35.0 4334.3987988 -8341.5276977 1185.61275075
-33.8566 -80.5339 35.0 4330.76105105 -8331.75554555 1200.05468869
-33.5232 -80.5339 35.0 4334.72637638 -8340.50924925 1197.68998999
-33.1898 -80.5339 35.0 4331.48402402 -8331.42884885 1207.54419019
-32.8564 -80.5339 35.0 4330.44024024 -8325.29228228 1207.77564464
-32.523 -80.5339 35.0 4323.89399399 -8306.93640641 1214.49223123
-32.1896 -80.5339 35.0 4330.34074074 -8325.27896897 1187.70374875
-31.8561 -80.5339 35.0 4332.42637638 -8332.20269269 1177.35715716
-31.5227 -80.5339 35.0 4329.28746747 -8324.62204204 1180.37955255
-31.1893 -80.5339 35.0 4321.71703704 -8306.9026026 1200.33642442
-30.8559 -80.5339 35.0 4323.98695696 -8314.73194194 1196.73333734
-30.5225 -80.5339 35.0 4326.67198198 -8323.09463463 1197.19621221
-30.1891 -80.5339 35.0 4333.60323323 -8339.46635636 1184.93954955
-29.8557 -80.5339 35.0 4337.90095095 -8347.05820821 1183.54106707
-29.5222 -80.5339 35.0 4347.98678679 -8370.3581982 1171.8138038
-29.1888 -80.5339 35.0 4352.58805806 -8383.48525526 1170.6077027
-28.8554 -80.5339 35.0 4351.57705706 -8381.16255255 1169.54794394
-28.522 -80.5339 35.0 4344.75588589 -8366.19184184 1174.0323994
-28.1886 -80.5339 35.0 4339.73731732 -8358.14368368 1161.51232933
-27.8552 -80.5339 35.0 4330.32269269 -8342.25447447 1166.02245946
-27.5218 -80.5339 35.0 4333.47654655 -8351.63733734 1163.67707207
-27.1883 -80.5339 35.0 4332.73903904 -8349.65524525 1173.12633734
-26.8549 -80.5339 35.0 4335.38663664 -8352.54424424 1163.95698699
-26.5215 -80.5339 35.0 4329.73195195 -8336.05768769 1168.59101001
-26.1881 -80.5339 35.0 4333.00936937 -8342.97474474 1158.07714815
-25.8547 -80.5339 35.0 4327.75706707 -8331.34520521 1167.76065816
-25.5213 -80.5339 35.0 4330.71297297 -8339.95495495 1163.59390791
-25.1879 -80.5339 35.0 4330.61798799 -8342.94863864 1165.86413103
-24.8544 -80.5339 35.0 4331.87255255 -8350.43081081 1157.60138649
-24.521 -80.5339 35.0 4324.52705706 -8337.81552553 1163.52047918
-24.1876 -80.5339 35.0 4319.52186186 -8329.11788789 1161.17191391
-23.8542 -80.5339 35.0 4314.73857858 -8317.75692693 1168.77177397
-23.5208 -80.5339 35.0 4320.6417017 -8328.76818819 1160.58650821
-23.1874 -80.5339 35.0 4319.80129129 -8326.74592593 1147.71446226
-22.854 -80.5339 35.0 4303.30556557 -8295.27918919 1125.1526964
-22.5206 -80.5339 35.0 4278.62581582 -8246.1028028 1117.16123407
-22.1871 -80.5339 35.0 4270.67273273 -8232.73926927 1110.76713724
-21.8537 -80.5339 35.0 4271.82718719 -8234.09847848 1117.35005875
-21.5203 -80.5339 35.0 4290.47578579 -8271.05632633 1104.95652776
-21.1869 -80.5339 35.0 4311.12902903 -8312.11467467 1120.87776025
-20.8535 -80.5339 35.0 4325.18247247 -8343.41264264 1155.11709693
-20.5201 -80.5339 35.0 4352.44129129 -8397.12167167 1221.67832467
-20.1867 -80.5339 35.0 4379.22708709 -8444.98617618 1266.61658382
-19.8532 -80.5339 35.0 4398.55918919 -8477.98288288 1306.01740961
-19.5198 -80.5339 35.0 4407.83082082 -8498.32822823 1316.71762388
-19.1864 -80.5339 35.0 4387.7858959 -8460.63371371 1308.30996413
-18.853 -80.5339 35.0 4361.9503003 -8407.73761762 1290.13729149
-18.5196 -80.5339 35.0 4338.22862863 -8358.16243243 1282.44819974
-18.1862 -80.5339 35.0 4353.2521021 -8389.77902903 1289.36141051
-17.8528 -80.5339 35.0 4362.73583584 -8411.82422422 1294.86113779
-17.5193 -80.5339 35.0 4358.94345345 -8407.32635636 1279.21204641
-17.1859 -80.5339 35.0 4333.22461461 -8353.42727728 1260.18784085
-16.8525 -80.5339 35.0 4335.55572573 -8359.39424424 1232.38335506
-16.5191 -80.5339 35.0 4346.62504505 -8381.34096096 1234.11599123
-16.1857 -80.5339 35.0 4377.61784785 -8445.41407407 1252.13007508
-15.8523 -80.5339 35.0 4402.44844845 -8496.62948949 1271.48592312
-15.5189 -80.5339 35.0 4430.86174174 -8555.58083083 1279.12511331
-15.1854 -80.5339 35.0 4425.58613614 -8544.81781782 1260.22283784
-14.852 -80.5339 35.0 4411.62632633 -8517.59496496 1223.04265749
-14.5186 -80.5339 35.0 4386.70284284 -8466.63586587 1208.1414662
-14.1852 -80.5339 35.0 4389.62177177 -8471.8839039 1232.51185205
-13.8518 -80.5339 35.0 4386.23416416 -8464.40970971 1258.33760854
-13.5184 -80.5339 35.0 4392.07143143 -8477.76627628 1236.50908503
-13.185 -80.5339 35.0 4381.99389389 -8457.90510511 1199.16927047
-12.8516 -80.5339 35.0 4378.06158158 -8452.66065065 1179.76024001
-12.5181 -80.5339 35.0 4371.93265265 -8441.96556557 1188.82153909
-12.1847 -80.5339 35.0 4384.27544545 -8469.115996 1207.69741381
-11.8513 -80.5339 35.0 4388.11386386 -8477.2766967 1236.37321848
-11.5179 -80.5339 35.0 4412.62917918 -8527.10454454 1259.7644996
-11.1845 -80.5339 35.0 4410.25642643 -8520.3503003 1260.62052401
-10.8511 -80.5339 35.0 4401.94658659 -8503.95323323 1231.02860508
-10.5177 -80.5339 35.0 4379.67007007 -8463.82642643 1197.49764002
-10.1842 -80.5339 35.0 4394.16272272 -8496.4634034 1213.16932813
-9.85083 -80.5339 35.0 4398.05071071 -8504.56356356 1237.678732
-9.51741 -80.5339 35.0 4397.60941942 -8502.22126126 1236.31089041
-9.184 -80.5339 35.0 4376.51824825 -8454.13374374 1220.32170688
-8.85059 -80.5339 35.0 4384.45352352 -8467.98488488 1208.7790001
-8.51717 -80.5339 35.0 4379.56938939 -8460.31248248 1202.79049425
-8.18376 -80.5339 35.0 4391.33670671 -8489.23656657 1193.20462653
-7.85034 -80.5339 35.0 4393.15277277 -8494.65363363 1197.62982931
-7.51693 -80.5339 35.0 4403.38925926 -8514.75474474 1229.97104955
-7.18352 -80.5339 35.0 4385.31825826 -8478.76065065 1246.12070743
-6.8501 -80.5339 35.0 4376.09967968 -8464.888999 1237.61260693
-6.51669 -80.5339 35.0 4349.74622623 -8416.79992993 1207.35166006
-6.18328 -80.5339 35.0 4359.7611011 -8435.1690991 1215.28914124
-5.84986 -80.5339 35.0 4350.64047047 -8412.21059059 1229.51140225
-5.51645 -80.5339 35.0 4342.82677678 -8395.06568569 1242.33876476
-5.18303 -80.5339 35.0 4318.27444444 -8343.2282983 1244.33256446
-4.84962 -80.5339 35.0 4312.37144144 -8328.94202202 1245.41408074
-4.51621 -80.5339 35.0 4298.35279279 -8298.00740741 1241.66772582
-4.18279 -80.5339 35.0 4304.27052052 -8311.84735736 1232.04388026
-3.84938 -80.5339 35.0 4303.19604605 -8314.28212212 1228.70141724
-3.51597 -80.5339 35.0 4326.04541542 -8362.84227227 1242.47877598
-3.18255 -80.5339 35.0 4334.38441441 -8380.98886887 1246.35165356
-2.84914 -80.5339 35.0 4335.28049049 -8385.67103103 1235.18783405
-2.51572 -80.5339 35.0 4318.4365966 -8351.63684685 1211.32459827
-2.18231 -80.5339 35.0 4338.42237237 -8391.69645646 1201.01843693
-1.8489 -80.5339 35.0 4338.80325325 -8393.10761762 1179.9101108
-1.51548 -80.5339 35.0 4355.99605606 -8430.59448448 1173.79186939
-1.18207 -80.5339 35.0 4351.93821822 -8421.51471471 1168.4185527
-0.848655 -80.5339 35.0 4354.07756757 -8423.74530531 1170.41665222
-0.515241 -80.5339 35.0 4339.12056056 -8394.79361361 1164.19010436
-0.181828 -80.5339 35.0 4343.74638639 -8409.14323323 1156.59551041
0.151586 -80.5339 35.0 4340.04209209 -8404.78985986 1151.27248661
0.485 -80.5339 35.0 4358.57252252 -8441.75496496 1163.8787884
0.818414 -80.5339 35.0 4353.89037037 -8427.95747748 1167.36525745
1.15183 -80.5339 35.0 4352.57231231 -8419.91743744 1166.10805246
1.48524 -80.5339 35.0 4325.38574575 -8364.96741742 1154.53172992
1.81866 -80.5339 35.0 4317.69976977 -8353.67381381 1154.34410405
2.15207 -80.5339 35.0 4295.65288288 -8315.78324324 1139.24299216
2.48548 -80.5339 35.0 4309.75034034 -8345.55593594 1141.63027537
2.8189 -80.5339 35.0 4315.7263964 -8354.53502503 1140.93677299
3.15231 -80.5339 35.0 4324.13048048 -8375.78479479 1135.72785156
3.48572 -80.5339 35.0 4308.25568569 -8348.28453453 1126.84388527
3.81914 -80.5339 35.0 4297.44377377 -8327.25678679 1124.95158997
4.15255 -80.5339 35.0 4293.20415415 -8316.42443443 1136.76981815
4.48597 -80.5339 35.0 4295.23682683 -8319.16947948 1123.46900762
4.81938 -80.5339 35.0 4284.06459459 -8296.87407407 1097.69405422
5.15279 -80.5339 35.0 4293.60037037 -8316.61676677 1110.06217518
5.48621 -80.5339 35.0 4258.08331331 -8244.86518519 1098.58602757
5.81962 -80.5339 35.0 4238.2354955 -8201.90584585 1105.95273255
6.15303 -80.5339 35.0 4208.04167167 -8140.49912913 1095.43549145
6.48645 -80.5339 35.0 4213.9108008 -8146.91184184 1084.40699656
6.81986 -80.5339 35.0 4231.7809009 -8189.3039039 1107.05820654
7.15328 -80.5339 35.0 4234.8975976 -8197.46773774 1102.59924426
7.48669 -80.5339 35.0 4213.52033033 -8155.13818819 1097.13769982
7.8201 -80.5339 35.0 4189.58065065 -8100.45025025 1073.36628747
8.15352 -80.5339 35.0 4179.85116116 -8075.17598599 1078.0820933
8.48693 -80.5339 35.0 4162.76710711 -8040.92306306 1052.46369392
8.82034 -80.5339 35.0 4149.44812813 -8015.56478478 1039.48136186
9.15376 -80.5339 35.0 4155.34397397 -8029.43664665 1030.17072067
9.48717 -80.5339 35.0 4146.64808809 -8012.5023023 1018.53609703
9.82059 -80.5339 35.0 4066.15309309 -7847.90814815 885.771237848