TITLE="/home/ydevaux/local/traitement_z_20_z_35/z_35mm_PL_traitement/z=35mm_alpha_14_beta_5_50img_run1_vfield_2D3C/vel_000006.dat"
VARIABLES="X","Y","Z","VX","VY","VZ","flag"
ZONE T="6", I=289, J=214, SOLUTIONTIME=6
-47.5266 -81.232 35 5329.58 -10626.4 -83.2258 65572
-47.1932 -81.232 35 5247.15 -10424.6 31.7151 65572
-46.8598 -81.232 35 5323.2 -10610.1 -73.8447 65572
-46.5263 -81.232 35 5229.02 -10395 49.1904 65572
-46.1929 -81.232 35 4520.97 -8787.95 986.092 65572
-45.8595 -81.232 35 3773.71 -7124.22 1993.77 65572
-45.5261 -81.232 35 3639.54 -6798.62 2191.98 65572
-45.1927 -81.232 35 3710.35 -6906.54 2119.28 65572
-44.8593 -81.232 35 3761.07 -6999 2058.91 65572
-44.5259 -81.232 35 3766.39 -7013.61 2048.63 65572
-44.1924 -81.232 35 3759.76 -7003.93 2053.56 65572
-43.859 -81.232 35 3727.17 -6935.89 2094.62 65572
-43.5256 -81.232 35 3732.61 -6947.02 2086.44 65572
-43.1922 -81.232 35 3725.92 -6934.54 2093.24 65572
-42.8588 -81.232 35 3758.86 -6999.43 2051.59 65572
-42.5254 -81.232 35 3755.01 -6987.44 2057.82 65572
-42.192 -81.232 35 3759.33 -7004.46 2047.09 65572
-41.8586 -81.232 35 3753.89 -6996.34 2051.64 65572
-41.5251 -81.232 35 3763.67 -7019.91 2036.55 65572
-41.1917 -81.232 35 3753.91 -6992.12 2052.45 65572
-40.8583 -81.232 35 3742.97 -6967.11 2066.99 65572
-40.5249 -81.232 35 3751.4 -6986.44 2054.3 65572
-40.1915 -81.232 35 3759.11 -7002.1 2043.64 65572
-39.8581 -81.232 35 3740.86 -6966.16 2065.02 65572
-39.5247 -81.232 35 3755.28 -6997.42 2044.65 65572
-39.1912 -81.232 35 3740.85 -6970.81 2060.14 65572
-38.8578 -81.232 35 3732.67 -6954.82 2068.82 65572
-38.5244 -81.232 35 3733.07 -6956.3 2066.59 65572
-38.191 -81.232 35 3728.83 -6947.99 2070.41 65572
-37.8576 -81.232 35 3729.41 -6950.49 2067.61 65572
-37.5242 -81.232 35 3726.67 -6946.09 2069.13 65572
-37.1908 -81.232 35 3730.3 -6954.84 2062.58 65572
-36.8573 -81.232 35 3740.94 -6976.25 2048.18 65572
-36.5239 -81.232 35 3737.2 -6967.47 2052.44 65572
-36.1905 -81.232 35 3719.33 -6933.94 2072.33 65572
-35.8571 -81.232 35 3732.99 -6962.79 2053.51 65572
-35.5237 -81.232 35 3736.57 -6974.5 2045.5 65572
-35.1903 -81.232 35 3727 -6958.3 2054.59 65572
-34.8569 -81.232 35 3718.05 -6941.68 2063.83 65572
-34.5234 -81.232 35 3725.84 -6963.73 2049.64 65572
-34.19 -81.232 35 3734.33 -6993.82 2031.11 65572
-33.8566 -81.232 35 3715.05 -6949.31 2057.12 65572
-33.5232 -81.232 35 3731.07 -6988.51 2032.41 65572
-33.1898 -81.232 35 3717.33 -6949.64 2054.22 65572
-32.8564 -81.232 35 3708.05 -6928.43 2065.63 65572
-32.523 -81.232 35 3707.99 -6930 2063.19 65572
-32.1896 -81.232 35 3702.89 -6920.18 2067.67 65572
-31.8561 -81.232 35 3701.39 -6917.57 2067.86 65572
-31.5227 -81.232 35 3699.76 -6914.64 2068.4 65572
-31.1893 -81.232 35 3698.4 -6912.82 2068.46 65572
-30.8559 -81.232 35 3696.67 -6910.89 2068.63 65572
-30.5225 -81.232 35 3695.2 -6909.74 2068.27 65572
-30.1891 -81.232 35 3693.75 -6908.28 2067.92 65572
-29.8557 -81.232 35 3694.12 -6910.14 2065.38 65572
-29.5222 -81.232 35 3691.91 -6906.32 2066.2 65572
-29.1888 -81.232 35 3694.51 -6914.67 2059.78 65572
-28.8554 -81.232 35 3703.87 -6944.54 2040.83 65572
-28.522 -81.232 35 3702.32 -6950.41 2036.52 65572
-28.1886 -81.232 35 3689.73 -6918.57 2054.19 65572
-27.8552 -81.232 35 3674.05 -6870.41 2081.14 65572
-27.5218 -81.232 35 3672.93 -6872.5 2078.97 65572
-27.1883 -81.232 35 3672.14 -6871.03 2078.68 65572
-26.8549 -81.232 35 3670.96 -6870.34 2078.03 65572
-26.5215 -81.232 35 3671.05 -6870.35 2076.72 65572
-26.1881 -81.232 35 3667.66 -6865.14 2078.69 65572
-25.8547 -81.232 35 3663.29 -6855.28 2083.31 65572
-25.5213 -81.232 35 3693.37 -6924.06 2040.65 65572
-25.1879 -81.232 35 3685.17 -6909.95 2048.34 65572
-24.8544 -81.232 35 3689.17 -6919.92 2041.47 65572
-24.521 -81.232 35 3684.3 -6911.05 2046.13 65572
-24.1876 -81.232 35 3692.71 -6931.27 2033.3 65572
-23.8542 -81.232 35 3675.95 -6897.65 2052.97 65572
-23.5208 -81.232 35 3666.59 -6878.73 2063.54 65572
-23.1874 -81.232 35 3666.24 -6878.56 2062.61 65572
-22.854 -81.232 35 3663.07 -6872.85 2064.94 65572
-22.5206 -81.232 35 3666.51 -6881.22 2058.6 65572
-22.1871 -81.232 35 3679.31 -6906.77 2041.88 65572
-21.8537 -81.232 35 3673.1 -6892.21 2049.04 65572
-21.5203 -81.232 35 3654.22 -6857.32 2069.02 65572
-21.1869 -81.232 35 3650.93 -6852.04 2067.94 65572
-20.8535 -81.232 35 3650.64 -6853.09 2067.46 65572
-20.5201 -81.232 35 3649.47 -6851.98 2067.22 65572
-20.1867 -81.232 35 3650.9 -6855.47 2073.23 65572
-19.8532 -81.232 35 3651.69 -6858.92 2072.06 65572
-19.5198 -81.232 35 3652.34 -6865.13 2063.12 65572
-19.1864 -81.232 35 3665.97 -6907.04 2038.57 65572
-18.853 -81.232 35 3666.66 -6907.91 2034.33 65572
-18.5196 -81.232 35 3653.1 -6867.82 2056.39 65572
-18.1862 -81.232 35 3661.54 -6884.4 2044.98 65572
-17.8528 -81.232 35 3666.04 -6898.95 2035.52 65572
-17.5193 -81.232 35 3643.42 -6851.68 2062.68 65572
-17.1859 -81.232 35 3658.5 -6890.08 2038.89 65572
-16.8525 -81.232 35 3660.39 -6892.03 2036.35 65572
-16.5191 -81.232 35 3645.79 -6855.87 2056.36 65572
-16.1857 -81.232 35 3656.1 -6880.17 2040.65 65572
-15.8523 -81.232 35 4555.19 -8977.53 828.916 81956
-15.5189 -81.232 35 4539.69 -8989.81 822.679 81956
-15.1854 -81.232 35 4539.11 -8988.48 822.849 81956
-14.852 -81.232 35 4535.51 -8985.95 823.878 81956
-14.5186 -81.232 35 4515.15 -8787.36 931.152 81956
-14.1852 -81.232 35 3667.94 -6906.51 2017.87 65572
-13.8518 -81.232 35 3639.49 -6848.27 2051.76 65572
-13.5184 -81.232 35 3630.22 -6830.21 2061.67 65572
-13.185 -81.232 35 3630.41 -6831.89 2059.78 65572
-12.8516 -81.232 35 3625.65 -6823.23 2064.05 65572
-12.5181 -81.232 35 3624.2 -6821.49 2064.13 65572
-12.1847 -81.232 35 3622.5 -6819.18 2064.55 65572
-11.8513 -81.232 35 3621.24 -6817.82 2064.33 65572
-11.5179 -81.232 35 3619.79 -6816.13 2064.29 65572
-11.1845 -81.232 35 3618.6 -6814.85 2063.97 65572
-10.8511 -81.232 35 3617.42 -6813.25 2063.84 65572
-10.5177 -81.232 35 3616.22 -6811.44 2063.77 65572
-10.1842 -81.232 35 3614.99 -6809.6 2063.72 65572
-9.85083 -81.232 35 3613.73 -6807.82 2063.65 65572
-9.51741 -81.232 35 3612.42 -6805.98 2063.61 65572
-9.184 -81.232 35 3611.26 -6804.58 2063.31 65572
-8.85059 -81.232 35 3609.82 -6802.61 2063.35 65572
-8.51717 -81.232 35 3608.76 -6801.23 2063.05 65572
-8.18376 -81.232 35 3607.47 -6799 2063.22 65572
-7.85034 -81.232 35 3609.36 -6803.36 2059.53 65572
-7.51693 -81.232 35 3606.79 -6798.36 2061.37 65572
-7.18352 -81.232 35 3613.22 -6811.79 2052.31 65572
-6.8501 -81.232 35 3626.32 -6837.81 2035.7 65572
-6.51669 -81.232 35 3608.2 -6800.79 2056.36 65572
-6.18328 -81.232 35 3624.95 -6836.08 2034.29 65572
-5.84986 -81.232 35 3612.32 -6813.03 2046.74 65572
-5.51645 -81.232 35 3601.24 -6792.55 2057.61 65572
-5.18303 -81.232 35 3608.02 -6807.06 2047.76 65572
-4.84962 -81.232 35 3617.01 -6821 2038.04 65572
-4.51621 -81.232 35 3607.95 -6800.81 2048.65 65572
-4.18279 -81.232 35 3588.94 -6768.4 2066.98 65572
-3.84938 -81.232 35 3588.13 -6767.91 2066.33 65572
-3.51597 -81.232 35 3585.54 -6764.19 2067.64 65572
-3.18255 -81.232 35 3585.62 -6764.75 2066.39 65572
-2.84914 -81.232 35 3583.79 -6762.34 2066.9 65572
-2.51572 -81.232 35 3600.62 -6792.46 2047.88 65572
-2.18231 -81.232 35 3606.29 -6807.55 2038.02 65572
-1.8489 -81.232 35 3593.25 -6787.26 2048.96 65572
-1.51548 -81.232 35 3584.14 -6770.65 2057.41 65572
-1.18207 -81.232 35 3589.93 -6781.68 2049.47 65572
-0.848655 -81.232 35 3599.34 -6795.12 2039.85 65572
-0.515241 -81.232 35 3594.52 -6781.89 2045.95 65572
-0.181828 -81.232 35 3576.37 -6750.01 2063.37 65572
0.151586 -81.232 35 3591.01 -6779.02 2044.84 65572
0.485 -81.232 35 3594.85 -6790.95 2036.51 65572
0.818414 -81.232 35 3582.6 -6768.68 2048.05 65572
1.15183 -81.232 35 3573.75 -6751.34 2056.67 65572
1.48524 -81.232 35 3580.26 -6764.54 2047.5 65572
1.81866 -81.232 35 3590 -6780.42 2036.72 65572
2.15207 -81.232 35 3580.76 -6759.39 2047.67 65572
2.48548 -81.232 35 3562.45 -6727.38 2065.5 65572
2.8189 -81.232 35 3560.81 -6725.79 2065.64 65572
3.15231 -81.232 35 3560.54 -6728.15 2063.66 65572
3.48572 -81.232 35 3558.03 -6725.23 2064.8 65572
3.81914 -81.232 35 3555.71 -6720.69 2066.79 65572
4.15255 -81.232 35 3556.06 -6721.82 2065.31 65572
4.48597 -81.232 35 3556.99 -6725.3 2062.34 65572
4.81938 -81.232 35 3579.76 -6780.29 2029.65 65572
5.15279 -81.232 35 3575.02 -6766.64 2036.05 65572
5.48621 -81.232 35 3564.67 -6741.43 2049.1 65572
5.81962 -81.232 35 3578.03 -6779.95 2025.93 65572
6.15303 -81.232 35 3562.67 -6747.7 2043.18 65572
6.48645 -81.232 35 3574.08 -6772.19 2027.75 65572
6.81986 -81.232 35 3560.85 -6736.09 2046.89 65572
7.15328 -81.232 35 3571.39 -6766.9 2028.26 65572
7.48669 -81.232 35 3557.23 -6738.07 2043.51 65572
7.8201 -81.232 35 3569.57 -6765.49 2026.4 65572
8.15352 -81.232 35 3555.59 -6725.2 2047.9 65572
8.48693 -81.232 35 3566.65 -6744.26 2035.6 65572
8.82034 -81.232 35 3557.39 -6725.74 2044 65572
9.15376 -81.232 35 3568.95 -6750.86 2027.26 65572
9.48717 -81.232 35 3552.31 -6718.56 2048.24 65572
9.82059 -81.232 35 3544.06 -6702.65 2060.41 65572
10.154 -81.232 35 3565.18 -6745.35 2087.07 65572
10.4874 -81.232 35 2992.28 -5297.68 1168.04 65572
10.8208 -81.232 35 2979.91 -5263.77 1129.92 65572
11.1542 -81.232 35 2993.8 -5288.83 1111.17 65572
11.4877 -81.232 35 2975.26 -5251.49 1130.83 65572
11.8211 -81.232 35 2983.08 -5266.43 1098.03 65572
12.1545 -81.232 35 2956.18 -5235.66 1111.75 65572
12.4879 -81.232 35 2304.63 -4180.49 431.643 65572
12.8213 -81.232 35 2021.08 -3653.78 72.0227 65572
13.1547 -81.232 35 1932.58 -3479.66 -37.6563 65572
13.4881 -81.232 35 1954.91 -3520.35 -9.92095 65572
13.8216 -81.232 35 1972.16 -3552.29 12.6186 65572
14.155 -81.232 35 1966.81 -3541.58 5.06447 65572
14.4884 -81.232 35 1961.67 -3531.39 -1.44766 65572
14.8218 -81.232 35 1963.41 -3534.57 0.446587 65572
15.1552 -81.232 35 1964.8 -3537.15 1.91485 65572
15.4886 -81.232 35 1964.59 -3536.85 1.1982 65572
15.822 -81.232 35 1964.39 -3536.65 0.571874 65572
16.1554 -81.232 35 1964.8 -3537.2 0.151892 65572
16.4889 -81.232 35 1964.96 -3536.44 -0.244343 65572
16.8223 -81.232 35 1965.38 -3536.3 -0.936044 65572
17.1557 -81.232 35 1965.7 -3537.14 -0.531208 65572
17.4891 -81.232 35 1968.52 -3545.62 -1.89186 65572
17.8225 -81.232 35 1967.32 -3547.03 1.99846 65572
18.1559 -81.232 35 1973.41 -3564.6 -2.97743 65572
18.4893 -81.232 35 1988.34 -3598.1 -18.7897 65572
18.8228 -81.232 35 1986.53 -3586.58 -14.6448 65572
19.1562 -81.232 35 1971.39 -3545.67 1.98081 65572
19.4896 -81.232 35 1995.94 -3586.32 -23.2161 65572
19.823 -81.232 35 1986.6 -3571.14 -16.5353 65572
20.1564 -81.232 35 1975.48 -3554.86 -7.37126 65572
20.4898 -81.232 35 1991 -3589.37 -24.8468 65572
20.8232 -81.232 35 1978.85 -3561.6 -10.6256 65572
21.1567 -81.232 35 1995.77 -3597.63 -29.7871 65572
21.4901 -81.232 35 1982.82 -3571.74 -16.6051 65572
21.8235 -81.232 35 1971.69 -3549.42 -4.98429 65572
22.1569 -81.232 35 1979.96 -3568.48 -14.724 65572
22.4903 -81.232 35 1989.98 -3590.11 -25.8035 65572
22.8237 -81.232 35 1985.08 -3582.53 -21.9966 65572
23.1571 -81.232 35 1967.19 -3544.55 -2.61638 65572
23.4906 -81.232 35 1984.71 -3590.01 -26.3812 65572
23.824 -81.232 35 1989.54 -3599.12 -31.3029 65572
24.1574 -81.232 35 1974.54 -3558.82 -9.67619 65572
24.4908 -81.232 35 1968.43 -3543.87 -1.5106 65572
24.8242 -81.232 35 1971.17 -3549.61 0.913009 65572
25.1576 -81.232 35 1970.16 -3548.09 0.195081 65572
25.491 -81.232 35 1981.68 -3573.91 0.334248 65572
25.8244 -81.232 35 2009.98 -3639.21 1.90128 65572
26.1579 -81.232 35 2001.2 -3626.88 8.73594 65572
26.4913 -81.232 35 1967.21 -3552.75 11.4524 65572
26.8247 -81.232 35 1953.38 -3516.23 -12.1233 65572
27.1581 -81.232 35 1955.49 -3524.25 -13.4995 65572
27.4915 -81.232 35 1974.04 -3576 -40.2364 65572
27.8249 -81.232 35 1983.38 -3595.5 -48.643 65572
28.1583 -81.232 35 1968.92 -3553.74 -26.7514 65572
28.4918 -81.232 35 1961.21 -3535.16 -16.4126 65572
28.8252 -81.232 35 1963.35 -3538.45 -17.3553 65572
29.1586 -81.232 35 1958.25 -3526.05 -14.7742 65572
29.492 -81.232 35 1954.95 -3517.13 -18.5321 65572
29.8254 -81.232 35 1987.63 -3580.93 26.9356 65572
30.1588 -81.232 35 1986.9 -3580.67 17.4205 65572
30.4922 -81.232 35 1973.26 -3553.91 2.39439 65572
30.8257 -81.232 35 1983.81 -3575.66 -3.05505 65572
31.1591 -81.232 35 1994.14 -3595.8 -26.7648 65572
31.4925 -81.232 35 1974.71 -3554.74 -7.25948 65572
31.8259 -81.232 35 1994.37 -3597.1 -29.5417 65572
32.1593 -81.232 35 1985.36 -3581.56 -15.6766 65572
32.4927 -81.232 35 1972.88 -3557.2 -5.53258 65572
32.8261 -81.232 35 1989.96 -3596.89 -10.4796 65572
33.1596 -81.232 35 2012.5 -3656.42 -3.32207 65572
33.493 -81.232 35 1985.37 -3607.52 19.115 65572
33.8264 -81.232 35 1989.99 -3607.85 -32.9464 65572
34.1598 -81.232 35 2017.12 -3692.95 70.4733 65572
34.4932 -81.232 35 2769.33 -5326.58 1219.68 65572
34.8266 -81.232 35 2714.7 -5155.7 1102.25 65572
35.16 -81.232 35 2708.48 -5143.41 1104.5 65572
35.4934 -81.232 35 2707.8 -5144.42 1106.34 65572
35.8269 -81.232 35 2731.17 -5240.77 1170.71 65572
36.1603 -81.232 35 2013.78 -3679.92 85.4446 65572
36.4937 -81.232 35 1986.19 -3584.82 24.2693 65572
36.8271 -81.232 35 2068.2 -3742.73 119.243 65572
37.1605 -81.232 35 2039.8 -3695.74 48.6992 65572
37.4939 -81.232 35 1990.88 -3595.16 0.67217 65572
37.8273 -81.232 35 1963.75 -3540.78 9.24815 65572
38.1608 -81.232 35 1977.62 -3569.76 29.5182 65572
38.4942 -81.232 35 1980.68 -3576.28 28.767 65572
38.8276 -81.232 35 1965.19 -3547.71 -36.2537 65572
39.161 -81.232 35 1979.16 -3580 -45.5402 65572
39.4944 -81.232 35 1968.53 -3555.08 -30.3164 65572
39.8278 -81.232 35 1957.89 -3533.06 -18.9427 65572
40.1612 -81.232 35 1968.24 -3557.49 -30.1579 65572
40.4947 -81.232 35 1979.65 -3590.09 -45.7697 65572
40.8281 -81.232 35 1969.67 -3567.99 -36.212 65572
41.1615 -81.232 35 1949.09 -3513.74 -10.326 65572
41.4949 -81.232 35 1947.67 -3507.79 -13.0977 65572
41.8283 -81.232 35 1964.06 -3546.08 11.439 65572
42.1617 -81.232 35 1981.43 -3594.79 -25.001 65572
42.4951 -81.232 35 1985.8 -3599.8 -40.0695 65572
42.8286 -81.232 35 1982.28 -3583.63 -0.38243 65572
43.162 -81.232 35 1986.8 -3589.5 26.7707 65572
43.4954 -81.232 35 1982.84 -3580.26 15.6341 65572
43.8288 -81.232 35 1970.41 -3554.26 5.83807 65572
44.1622 -81.232 35 1983.28 -3579.55 24.2642 65572
44.4956 -81.232 35 1984.72 -3581.96 26.4753 65572
44.829 -81.232 35 1958.08 -3528.4 -22.8997 65572
45.1624 -81.232 35 1958.67 -3527.92 -17.4976 65572
45.4959 -81.232 35 1969.76 -3553.46 -29.4156 65572
45.8293 -81.232 35 1985.23 -3598.17 -53.5846 65572
46.1627 -81.232 35 1963.84 -3547.37 -27.2064 65572
46.4961 -81.232 35 1987.48 -3600.35 -53.2516 65572
46.8295 -81.232 35 1973.36 -3558.6 -28.572 65572
47.1629 -81.232 35 1961.52 -3535.21 -17.3616 65572
47.4963 -81.232 35 1959.25 -3535.81 -24.0598 65572
47.8298 -81.232 35 1981.7 -3582.19 20.8699 65572
48.1632 -81.232 35 1981.51 -3581.94 20.9907 65572
48.4966 -81.232 35 1992.05 -3603.33 35.5906 65572
-47.5266 -80.5339 35 5254.78 -10441.3 -53.3005 65572
-47.1932 -80.5339 35 5234.12 -10395.4 -26.9762 65572
-46.8598 -80.5339 35 5250.11 -10431.1 -47.2122 65572
-46.5263 -80.5339 35 5197.2 -10314.8 19.5828 65572
-46.1929 -80.5339 35 4958.02 -9765.82 335.377 65572
-45.8595 -80.5339 35 4693.17 -9158.78 688.449 65572
-45.5261 -80.5339 35 4606.24 -8940.78 814.553 65572
-45.1927 -80.5339 35 4668.86 -9059.91 742.14 65572
-44.8593 -80.5339 35 4741.08 -9215.17 649.672 65572
-44.5259 -80.5339 35 4617.18 -8931.92 814.428 65572
-44.1924 -80.5339 35 4138.98 -7858.98 1452.34 65572
-43.859 -80.5339 35 3686.53 -6875.57 2053.32 65572
-43.5256 -80.5339 35 3497.26 -6484.77 2297.16 65572
-43.1922 -80.5339 35 3685.19 -6873.98 2052.04 65572
-42.8588 -80.5339 35 4213.2 -8008.24 1358.04 65572
-42.5254 -80.5339 35 4573.15 -8866.34 851.234 65572
-42.192 -80.5339 35 4419.91 -8629.71 996.494 65572
-41.8586 -80.5339 35 4180.97 -8136.52 1292.87 65572
-41.5251 -80.5339 35 4311.26 -8404.52 1131.27 65572
-41.1917 -80.5339 35 4563.64 -8887.86 841.2 65572
-40.8583 -80.5339 35 4714.55 -9172.38 672.521 2162724
-40.5249 -80.5339 35 4644.07 -8978.84 783.707 7667748
-40.1915 -80.5339 35 4399.37 -8362.61 1142.06 65572
-39.8581 -80.5339 35 4292.92 -8091.27 1300.48 65572
-39.5247 -80.5339 35 4419.27 -8403.54 1116.46 65572
-39.1912 -80.5339 35 4627.66 -8951.15 798.474 65572
-38.8578 -80.5339 35 4662.46 -9058.34 736.557 65572
-38.5244 -80.5339 35 4654.56 -9031.35 750.99 65572
-38.191 -80.5339 35 4643.65 -8998.09 769.176 65572
-37.8576 -80.5339 35 4662.62 -9047.35 740.133 65572
-37.5242 -80.5339 35 4689.55 -9116.16 699.992 65572
-37.1908 -80.5339 35 4638.91 -8981.23 776.792 65572
-36.8573 -80.5339 35 4461.13 -8521.76 1041.4 65572
-36.5239 -80.5339 35 4265.06 -8031.99 1326.61 65572
-36.1905 -80.5339 35 4197.43 -7872.93 1419.8 65572
-35.8571 -80.5339 35 4256.21 -8027.36 1328.82 65572
-35.5237 -80.5339 35 4437.45 -8489.94 1058.85 65572
-35.1903 -80.5339 35 4637.98 -8991.53 768.734 196644
-34.8569 -80.5339 35 4697.29 -9139.67 683.387 4522020
-34.5234 -80.5339 35 4611.62 -8984.21 774.393 65572
-34.19 -80.5339 35 4277.92 -8363.91 1142.34 65572
-33.8566 -80.5339 35 4124.45 -8082.07 1311.97 65572
-33.5232 -80.5339 35 4289.15 -8392.7 1124.46 65572
-33.1898 -80.5339 35 4607.87 -8972.54 779.543 65572
-32.8564 -80.5339 35 4703.26 -9133.83 683.857 65572
-32.523 -80.5339 35 4658.86 -9046.52 733.618 65572
-32.1896 -80.5339 35 4636.45 -9006.19 756.26 65572
-31.8561 -80.5339 35 4647.16 -9027.3 743.161 65572
-31.5227 -80.5339 35 4651.97 -9035.69 737.56 65572
-31.1893 -80.5339 35 4649.14 -9030 740.348 65572
-30.8559 -80.5339 35 4648.66 -9029.69 740.114 65572
-30.5225 -80.5339 35 4645.4 -9026.07 741.913 65572
-30.1891 -80.5339 35 4638.67 -9014.94 747.911 65572
-29.8557 -80.5339 35 4650.62 -9032.08 737.105 65572
-29.5222 -80.5339 35 4674.6 -9073.69 712.15 65572
-29.1888 -80.5339 35 4614.65 -8992.26 759.976 65572
-28.8554 -80.5339 35 4394.29 -8630.44 973.204 65572
-28.522 -80.5339 35 4067.49 -7959.38 1368.18 65572
-28.1886 -80.5339 35 3792.83 -7245.28 1786.28 65572
-27.8552 -80.5339 35 3651.65 -6812.98 2037.7 65572
-27.5218 -80.5339 35 3617.56 -6702.37 2101.08 65572
-27.1883 -80.5339 35 3649.6 -6810.36 2037.07 65572
-26.8549 -80.5339 35 3685.55 -6892.13 1986.59 65572
-26.5215 -80.5339 35 3649.08 -6812.71 2033.34 65572
-26.1881 -80.5339 35 3536.96 -6562.93 2183.21 65572
-25.8547 -80.5339 35 3644.64 -6802.89 2036.39 65572
-25.5213 -80.5339 35 4134.76 -7879.44 1394.1 65572
-25.1879 -80.5339 35 4548.06 -8811.49 854.304 65572
-24.8544 -80.5339 35 4427.56 -8544.07 1007.55 65572
-24.521 -80.5339 35 4196.25 -8028.86 1305.87 65572
-24.1876 -80.5339 35 4333.44 -8320.01 1136.16 65572
-23.8542 -80.5339 35 4544.44 -8780.59 871.187 65572
-23.5208 -80.5339 35 4644.53 -9024.79 732.875 65572
-23.1874 -80.5339 35 4645.18 -9041.26 724.077 65572
-22.854 -80.5339 35 4651.53 -9059.27 713.966 65572
-22.5206 -80.5339 35 4606.62 -8943.75 777.699 65572
-22.1871 -80.5339 35 4415.38 -8462.44 1048.66 65572
-21.8537 -80.5339 35 4232.64 -7979.73 1325.81 65572
-21.5203 -80.5339 35 4204.18 -7854.45 1398.75 65572
-21.1869 -80.5339 35 4221.94 -7892.79 1368.08 65572
-20.8535 -80.5339 35 4179.85 -7890.58 1351.23 65572
-20.5201 -80.5339 35 4172.59 -7921.56 1379.78 65572
-20.1867 -80.5339 35 4260.18 -8057.45 1425.3 65572
-19.8532 -80.5339 35 4330.54 -8213.34 1543.62 65572
-19.5198 -80.5339 35 4214.64 -8152.27 1614.02 65572
-19.1864 -80.5339 35 4180.01 -8215.09 1568.22 65572
-18.853 -80.5339 35 4454.53 -8794.45 1216.9 65572
-18.5196 -80.5339 35 4711.47 -9187.77 987.668 65572
-18.1862 -80.5339 35 4598.69 -8861.23 1174.06 65572
-17.8528 -80.5339 35 4282.48 -8232.88 1538.63 65572
-17.5193 -80.5339 35 4171.22 -8075.02 1633.76 65572
-17.1859 -80.5339 35 4229.75 -8242.87 1536.76 65572
-16.8525 -80.5339 35 4496.95 -8785.83 1219.37 65572
-16.5191 -80.5339 35 4741.38 -9239.81 956.536 65572
-16.1857 -80.5339 35 4770.37 -9299.88 921.518 65572
-15.8523 -80.5339 35 4718.94 -9241.56 955.254 65572
-15.5189 -80.5339 35 4744.47 -9260.91 942.364 65572
-15.1854 -80.5339 35 4714.86 -9210.26 970.703 65572
-14.852 -80.5339 35 4658.5 -9198.08 980.46 81956
-14.5186 -80.5339 35 4631.61 -9004.78 1085.47 81956
-14.1852 -80.5339 35 4561.31 -8782.33 1209.4 65572
-13.8518 -80.5339 35 4695.88 -9065.48 1048.1 65572
-13.5184 -80.5339 35 4788.59 -9308.57 912.16 65572
-13.185 -80.5339 35 4775.86 -9301.39 916.681 65572
-12.8516 -80.5339 35 4756.58 -9258.64 940.604 65572
-12.5181 -80.5339 35 4766.25 -9281.73 927.436 65572
-12.1847 -80.5339 35 4770.62 -9292.6 921.078 65572
-11.8513 -80.5339 35 4767.3 -9285.68 924.541 65572
-11.5179 -80.5339 35 4765.58 -9282.07 926.031 65572
-11.1845 -80.5339 35 4765.95 -9282.99 924.899 65572
-10.8511 -80.5339 35 4765.89 -9282.76 924.415 65572
-10.5177 -80.5339 35 4765.3 -9281.53 924.514 65572
-10.1842 -80.5339 35 4764.84 -9280.85 924.368 65572
-9.85083 -80.5339 35 4763.88 -9279.37 924.69 65572
-9.51741 -80.5339 35 4762.43 -9277.02 925.53 65572
-9.184 -80.5339 35 4762.84 -9279.11 923.923 65572
-8.85059 -80.5339 35 4764.62 -9284.33 920.632 65572
-8.51717 -80.5339 35 4759.31 -9272.7 926.713 65572
-8.18376 -80.5339 35 4748.99 -9249.56 939.208 65572
-7.85034 -80.5339 35 4765.74 -9289.08 916.82 65572
-7.51693 -80.5339 35 4801.93 -9372.03 870.3 65572
-7.18352 -80.5339 35 4728.43 -9196.6 967.145 65572
-6.8501 -80.5339 35 4480.37 -8620.77 1288.93 65572
-6.51669 -80.5339 35 4340.03 -8300.94 1469.16 65572
-6.18328 -80.5339 35 4465.6 -8584.37 1307.72 65572
-5.84986 -80.5339 35 4730.11 -9203.41 960.768 65572
-5.51645 -80.5339 35 4832.23 -9453.11 822.065 65572
-5.18303 -80.5339 35 4739.96 -9208.03 956.389 65572
-4.84962 -80.5339 35 4522.71 -8623.32 1279.77 65572
-4.51621 -80.5339 35 4341.07 -8142.29 1548.15 65572
-4.18279 -80.5339 35 4294.93 -8020.99 1615.68 65572
-3.84938 -80.5339 35 4322.34 -8087.91 1577.38 65572
-3.51597 -80.5339 35 4339.75 -8135.89 1550.17 65572
-3.18255 -80.5339 35 4320.3 -8085.91 1577.99 65572
-2.84914 -80.5339 35 4290.05 -8015.85 1617.24 65572
-2.51572 -80.5339 35 4335.08 -8136 1549.34 65572
-2.18231 -80.5339 35 4520.71 -8624.79 1276.03 65572
-1.8489 -80.5339 35 4713.73 -9166.17 976.718 65572
-1.51548 -80.5339 35 4746.68 -9284.66 911.234 196644
-1.18207 -80.5339 35 4715.45 -9169.71 973.108 65572
-0.848655 -80.5339 35 4538.73 -8665.48 1249.61 65572
-0.515241 -80.5339 35 4334.18 -8154.48 1533.16 65572
-0.181828 -80.5339 35 4244.21 -7984.19 1628.85 65572
0.151586 -80.5339 35 4290.69 -8143.38 1539.36 65572
0.485 -80.5339 35 4496.19 -8656.06 1252.3 65572
0.818414 -80.5339 35 4721.71 -9197.77 952.232 65572
1.15183 -80.5339 35 4808.64 -9408.24 836.094 65572
1.48524 -80.5339 35 4723.65 -9187.78 955.626 65572
1.81866 -80.5339 35 4510.06 -8627.05 1262.9 65572
2.15207 -80.5339 35 4336.36 -8153 1524.59 65572
2.48548 -80.5339 35 4302.98 -8032.61 1590.45 65572
2.8189 -80.5339 35 4310.53 -8086.54 1560.88 65572
3.15231 -80.5339 35 4256.18 -8107.51 1552.5 65572
3.48572 -80.5339 35 4204.07 -8098.01 1560.56 65572
3.81914 -80.5339 35 4213.45 -8117.88 1549.21 65572
4.15255 -80.5339 35 4202.45 -8088.28 1565.41 65572
4.48597 -80.5339 35 4132.83 -8006.2 1613.07 65572
4.81938 -80.5339 35 4160.75 -8115.57 1551.85 65572
5.15279 -80.5339 35 4491.4 -8786.14 1175.54 65572
5.48621 -80.5339 35 4650.53 -9109.37 996.619 65572
5.81962 -80.5339 35 4357.73 -8588.24 1285.12 65572
6.15303 -80.5339 35 4139.11 -8177.3 1515.65 65572
6.48645 -80.5339 35 4384.41 -8637.19 1255.93 65572
6.81986 -80.5339 35 4636.77 -9092.82 1003 65572
7.15328 -80.5339 35 4391.96 -8640.36 1252.25 65572
7.48669 -80.5339 35 4148.69 -8193.3 1502.24 65572
7.8201 -80.5339 35 4367.63 -8622.25 1260.97 65572
8.15352 -80.5339 35 4649.72 -9080.13 1006.73 65572
8.48693 -80.5339 35 4491.66 -8651.89 1239.22 65572
8.82034 -80.5339 35 4263.97 -8170.19 1503.74 65572
9.15376 -80.5339 35 4397.91 -8480.09 1331.25 65572
9.48717 -80.5339 35 4690.46 -9138.13 972.573 65572
9.82059 -80.5339 35 4770.69 -9320.05 876.093 65572
10.154 -80.5339 35 4696.57 -9173.57 845.564 65572
10.4874 -80.5339 35 4705.12 -9197.24 813.824 65572
10.8208 -80.5339 35 4032.77 -7550.66 -89.3119 65572
11.1542 -80.5339 35 3791.1 -6921.87 224.783 65572
11.4877 -80.5339 35 3612.47 -6492.96 351.102 65572
11.8211 -80.5339 35 3790.43 -6930.62 246.61 65572
12.1545 -80.5339 35 4259.84 -8200.36 340.875 65572
12.4879 -80.5339 35 4234.03 -8267.14 148.036 65572
12.8213 -80.5339 35 4052.55 -7914.77 15.9416 65572
13.1547 -80.5339 35 4001.2 -7802.38 -6.61251 65572
13.4881 -80.5339 35 4029.19 -7860.29 3.78139 65572
13.8216 -80.5339 35 4039.99 -7883.49 5.07958 65572
14.155 -80.5339 35 4032.92 -7868.03 2.41655 65572
14.4884 -80.5339 35 4029.43 -7860.21 0.9691 65572
14.8218 -80.5339 35 4031.67 -7864.85 1.61859 65572
15.1552 -80.5339 35 4032.73 -7867.12 1.36316 65572
15.4886 -80.5339 35 4032.08 -7865.82 1.34997 65572
15.822 -80.5339 35 4031.37 -7864.38 1.83717 65572
16.1554 -80.5339 35 4032.69 -7867.18 0.495043 65572
16.4889 -80.5339 35 4035.04 -7871.96 -2.30359 65572
16.8223 -80.5339 35 4030.97 -7862.92 2.0072 65572
17.1557 -80.5339 35 4022.7 -7844.97 11.7189 65572
17.4891 -80.5339 35 4038.1 -7878.86 -4.39365 65572
17.8225 -80.5339 35 4042.25 -7884.2 -4.8829 65572
18.1559 -80.5339 35 3958.69 -7697.86 93.6709 65572
18.4893 -80.5339 35 3776.68 -7294.47 304.726 65572
18.8228 -80.5339 35 3516.08 -6667.13 635.115 65572
19.1562 -80.5339 35 3467.27 -6477.15 734.663 65572
19.4896 -80.5339 35 3584.31 -6681.42 625.285 65572
19.823 -80.5339 35 3877.1 -7387.46 253.768 65572
20.1564 -80.5339 35 3982 -7717.27 80.535 65572
20.4898 -80.5339 35 3760.23 -7232.81 332.511 65572
20.8232 -80.5339 35 3569.21 -6785.08 567.808 65572
21.1567 -80.5339 35 3708.39 -7103.35 400.218 65572
21.4901 -80.5339 35 3929.24 -7636.36 121.562 65572
21.8235 -80.5339 35 4073.67 -7972.42 -52.4021 65572
22.1569 -80.5339 35 4014.02 -7815.11 29.3288 65572
22.4903 -80.5339 35 3763.75 -7229.69 333.199 65572
22.8237 -80.5339 35 3493.41 -6676.94 620.804 65572
23.1571 -80.5339 35 3365.57 -6498.6 711.867 65572
23.4906 -80.5339 35 3404.75 -6650.22 631.806 65572
23.824 -80.5339 35 3697.76 -7258.16 316.733 65572
24.1574 -80.5339 35 3991.44 -7803.51 31.0565 65572
24.4908 -80.5339 35 4060.69 -7918.11 -39.9644 65572
24.8242 -80.5339 35 4052.34 -7902.13 -7.63911 65572
25.1576 -80.5339 35 4093.88 -7989.93 0.888525 65572
25.491 -80.5339 35 3972.15 -7759.97 13.5725 65572
25.8244 -80.5339 35 3491.64 -6818.84 47.1031 65572
26.1579 -80.5339 35 2917.94 -5667.09 -102.005 65572
26.4913 -80.5339 35 2616.43 -5031.75 -430.515 65572
26.8247 -80.5339 35 2482.76 -4782.24 -661.897 65572
27.1581 -80.5339 35 2390.03 -4663.97 -685.02 65572
27.4915 -80.5339 35 2426.97 -4795.75 -679.786 65572
27.8249 -80.5339 35 2714.62 -5371.22 -958.191 65572
28.1583 -80.5339 35 3058.04 -6011.88 -1268.69 65572
28.4918 -80.5339 35 3176.91 -6217.82 -1321.56 65572
28.8252 -80.5339 35 3114.2 -6096.94 -1309.53 65572
29.1586 -80.5339 35 3007.74 -5896.98 -1418.1 65572
29.492 -80.5339 35 3104.26 -6076.26 -1296.64 65572
29.8254 -80.5339 35 3489.48 -6804.77 -740.778 65572
30.1588 -80.5339 35 3981.13 -7767.22 -95.8974 65572
30.4922 -80.5339 35 4094.39 -8003.53 -38.1145 65572
30.8257 -80.5339 35 3998.2 -7774.4 37.4628 65572
31.1591 -80.5339 35 3719.9 -7108.22 354.329 65572
31.4925 -80.5339 35 3576.13 -6770.92 557.487 65572
31.8259 -80.5339 35 3722.94 -7118.2 378.049 65572
32.1593 -80.5339 35 3961.93 -7682.64 106.847 65572
32.4927 -80.5339 35 4104.36 -8018.56 -63.0981 65572
32.8261 -80.5339 35 3915.12 -7683.97 -53.2259 65572
33.1596 -80.5339 35 3366.12 -6667 111.38 65572
33.493 -80.5339 35 2913.12 -5881.77 -61.2912 65572
33.8264 -80.5339 35 3013 -6157.39 -329.101 65572
34.1598 -80.5339 35 3403.45 -6964.04 -583.503 65572
34.4932 -80.5339 35 3964.71 -7943.36 -101.642 65572
34.8266 -80.5339 35 3880.26 -7690.33 -161.945 65572
35.16 -80.5339 35 3848.48 -7616.78 -164.365 65572
35.4934 -80.5339 35 3847.35 -7615.01 -184.983 65572
35.8269 -80.5339 35 3764.59 -7490.26 -268.681 65572
36.1603 -80.5339 35 3499.15 -7074.5 -621.008 65572
36.4937 -80.5339 35 3443.24 -7022.22 -758.241 65572
36.8271 -80.5339 35 3440.59 -6954.66 -596.993 65572
37.1605 -80.5339 35 3459.29 -6747.25 -8.07006 65572
37.4939 -80.5339 35 3544.07 -6552.89 527.143 65572
37.8273 -80.5339 35 3557.94 -6541.55 649.91 65572
38.1608 -80.5339 35 3445.75 -6411.78 498.511 65572
38.4942 -80.5339 35 3003.4 -5644.39 -7.61674 65572
38.8276 -80.5339 35 2566.84 -4860.5 -691.633 65572
39.161 -80.5339 35 2705.9 -5217.01 -1071.97 65572
39.4944 -80.5339 35 3099.22 -6044.45 -1274.6 65572
39.8278 -80.5339 35 3244.21 -6339.02 -1373.56 65572
40.1612 -80.5339 35 3097.29 -6053.63 -1272.43 65572
40.4947 -80.5339 35 2755.02 -5382.83 -939.525 65572
40.8281 -80.5339 35 2470.25 -4827.63 -687.596 65572
41.1615 -80.5339 35 2373.1 -4639.29 -718.939 65572
41.4949 -80.5339 35 2423.18 -4774.44 -662.272 65572
41.8283 -80.5339 35 2598.88 -5175.29 -302.133 65572
42.1617 -80.5339 35 2868.98 -5757.81 22.9488 65572
42.4951 -80.5339 35 3209.09 -6403.07 -216.977 65572
42.8286 -80.5339 35 3566.14 -7041.95 -529.561 65572
43.162 -80.5339 35 3826.09 -7491.27 -400.99 65572
43.4954 -80.5339 35 3970.44 -7742.17 -113.269 65572
43.8288 -80.5339 35 4087.52 -7975.82 95.9479 65572
44.1622 -80.5339 35 3984.56 -7778 -60.4771 65572
44.4956 -80.5339 35 3491.46 -6807.28 -755.768 65572
44.829 -80.5339 35 3160.46 -6157.26 -1300.4 65572
45.1624 -80.5339 35 3136.55 -6108.83 -1470.34 65572
45.4959 -80.5339 35 3094.98 -6040.92 -1260.44 65572
45.8293 -80.5339 35 2704.73 -5304.61 -878.033 65572
46.1627 -80.5339 35 2491.32 -4895.2 -704.862 65572
46.4961 -80.5339 35 2715.86 -5324.94 -865.6 65572
46.8295 -80.5339 35 3100.65 -6049.66 -1260.1 65572
47.1629 -80.5339 35 3117.6 -6069.47 -1509.23 65572
47.4963 -80.5339 35 3167.75 -6168.17 -1301.48 65572
47.8298 -80.5339 35 3620.1 -7056.94 -576.313 65572
48.1632 -80.5339 35 3923.23 -7656.98 -149.299 65572
48.4966 -80.5339 35 3681.75 -7178.98 -480.27 65572
-47.5266 -79.8359 35 5271.63 -10457.3 11.6051 65572
-47.1932 -79.8359 35 5271.24 -10457.2 11.6427 65572
-46.8598 -79.8359 35 5272.25 -10459 10.6811 65572
-46.5263 -79.8359 35 5266.86 -10448.5 16.9787 65572
-46.1929 -79.8359 35 5227.59 -10358.1 68.5932 65572
-45.8595 -79.8359 35 5218.13 -10334.6 81.462 65572
-45.5261 -79.8359 35 5225.5 -10349.5 72.1868 65572
-45.1927 -79.8359 35 5253.66 -10414.9 34.026 65572