TITLE="Vortex characteristics evolution"
Variables="time","radius","gamma","xcenter","ycenter","u_advection","v_advection","correlation","vtheta"
ZONE T="0", SOLUTIONTIME=0
