TITLE="Vortex characteristics evolution"
Variables="time","radius","gamma","xcenter","ycenter","u_advection","v_advection","correlation","vtheta"
DATASETAUXDATA Detection_method="swirling"
DATASETAUXDATA Scheme="least_square"
DATASETAUXDATA Box_size="6"
DATASETAUXDATA Detection_threshold="0.0"
DATASETAUXDATA Rmax="10"
DATASETAUXDATA Correlation_threshold="0.75"
DATASETAUXDATA Vortex_Model="Lamb_Oseen"
DATASETAUXDATA Mean_file="/"
DATASETAUXDATA File_type="openfoam"
ZONE T="0", SOLUTIONTIME=0
