TITLE="Vortex characteristics evolution"
Variables="time","radius","gamma","xcenter","ycenter","ua","va","corr","vtheta"
ZONE T="0", SOLUTIONTIME=0
