TITLE="Vortex characteristics evolution"
Variables="time","radius","gamma","xindex","yindex","uc","vc","dist","corr","vtheta"
ZONE T="0", SOLUTIONTIME=0
